13
Properties=species:S:1:pos:R:3:forces:R:3 charge=0 spin=1 energy=-7334.9026994481355 pbc="F F F"
C        1.78096637       0.60876722       0.45907705       0.00176282       0.00031636      -0.00107301
O        0.37519932       0.51476682       0.43230532      -0.00201768       0.00536818       0.00761493
C       -0.08030965      -0.60310141      -0.30408582       0.00202461       0.00029110       0.00139425
C       -1.58495035      -0.50657678      -0.37638407       0.00298792       0.00045710       0.00192649
O       -1.99661624       0.66988702      -1.04662127      -0.00775336      -0.00085696      -0.00042406
H        2.04073824       1.49139381       1.03936033      -0.00146790      -0.00545806      -0.00170057
H        2.22770873      -0.27408038       0.93025586       0.00035441       0.00413885      -0.00034171
H        2.18939481       0.71027414      -0.55264312       0.00441315      -0.00204150       0.00186783
H        0.34751944      -0.58526912      -1.31464852      -0.00746695       0.00051675      -0.00649140
H        0.22196700      -1.53765997       0.18702496       0.00217543      -0.00320829       0.00239661
H       -1.98356849      -1.35161143      -0.93820227       0.00391970       0.00546556       0.00126237
H       -1.99694230      -0.54298688       0.63856333      -0.00238750      -0.00298904      -0.00303396
H       -1.54312839       1.40541578      -0.61899651       0.00345541      -0.00199995      -0.00339778
13
Properties=species:S:1:pos:R:3:forces:R:3 charge=0 spin=1 energy=-7333.82921196058 pbc="F F F"
C        1.88197945       1.11330542       0.75371443      -0.00030615      -0.00166968      -0.00063604
O        0.52869120       0.85186042       1.07019252      -0.00424515      -0.00429088       0.00263956
C       -0.72377097      -1.21132554      -1.11861164      -0.00073193      -0.00039074       0.00096036
C       -1.92626198      -0.72361621      -0.44883158       0.00140161      -0.00003889       0.00099992
O       -1.07079869       0.17643886      -1.16084288      -0.00138146       0.00035150      -0.00257849
H        2.03071622       2.13771639       0.39928052       0.00124516       0.00296513       0.00250730
H        2.46496401       0.97667801       1.66290616      -0.00244334       0.00638775       0.00371591
H        2.26745701       0.42452338      -0.00574613       0.00635404      -0.00106713      -0.00584265
H       -0.80739239      -1.72407823      -2.06913220      -0.00801217      -0.00094507       0.00568769
H        0.14991433      -1.43973204      -0.51921669      -0.00003772       0.00180825      -0.00375375
H       -2.89584012      -0.87895483      -0.90615918       0.00643757       0.00215941      -0.00165185
H       -1.91291755      -0.60248377       0.62806297      -0.00076519      -0.00047130      -0.00175823
H        0.00955623       0.90113622       0.25344648       0.00248477      -0.00479837      -0.00028974
