71
Properties=species:S:1:pos:R:3:forces:R:3 charge=0 spin=2 energy=-65496.52728870536 free_energy=-65496.52728870536 pbc="F F F"
C        1.26439711       1.05645831       9.39350233       0.00430727      -0.00270823       0.01845652
C       -0.12080214       0.93737450       9.62423835      -0.00852429       0.00839051      -0.00326992
C       -0.49139465      -0.40871903       9.35893937      -0.01477997      -0.00066219      -0.01532877
C       -1.04272955       2.01373472      10.11510823      -0.00695964       0.00346554       0.00648226
C        0.65544455      -1.10397654       8.92198746       0.00672183      -0.00392908      -0.00280114
C        1.77128523      -0.20791542       8.94809579       0.00429065       0.00008355      -0.00884764
Si       3.54990333      -0.74594221       9.18665380       0.00378041      -0.00407922       0.00820970
C       -1.81509583      -1.02966763       9.67552308      -0.00839013       0.00090174       0.01025473
C        0.66339295      -2.55569388       8.53601151       0.00137353      -0.00363687       0.00650495
C        1.09445250       2.40931674       6.01146057       0.00670971       0.00360250      -0.00588226
C        0.02023800       1.89095831       5.25872968      -0.00643824       0.00227934      -0.00083562
C        0.35170765       0.56785627       4.86684478      -0.00707920      -0.00852431      -0.00114554
C       -1.20263014       2.67173424       4.88683406      -0.01282136      -0.00268895      -0.00839246
C        1.63478293       0.27336564       5.37040113       0.01194569       0.00299815      -0.01671924
C        2.12943942       1.42090555       6.07127753      -0.00309288      -0.01681785       0.04641624
C       -0.45529101      -0.35581879       4.00700192      -0.01402722       0.00173284      -0.00967517
C        2.36716456      -1.00938931       5.10237234       0.00184045      -0.00037631      -0.01865167
Ti       0.27128562       0.56946415       7.27554820      -0.01146685      -0.00880881       0.01010047
C        2.07971559       2.27337389       9.71163402      -0.00258329       0.00837015       0.00229523
C        1.12101768       3.81093744       6.55112055      -0.00167618       0.00461484      -0.00848445
Si       3.96437795       1.78292620       6.17052957       0.00131751       0.00402696      -0.00479891
H       -1.48493559      -0.02150352       3.90506336      -0.02221837       0.01500274       0.00331840
H       -0.48358971      -1.36949835       4.41038975       0.01239193       0.00759494       0.02332678
H       -0.02383489      -0.41711640       3.00476537       0.00510890      -0.00411925      -0.01425633
H        0.12617047       4.11835451       6.87833967      -0.00495929       0.00253452      -0.00351520
H        1.43901319       4.52244918       5.78332970       0.01329035       0.01487385      -0.00002056
H        1.79544133       3.91250796       7.39794285       0.00589994      -0.00773467      -0.01337456
H       -1.73144949       3.05733956       5.75999658       0.01151685      -0.01032918       0.01841751
H       -1.90739711       2.06835749       4.31898307      -0.01583574      -0.01885903      -0.00534445
H       -0.92684296       3.52553800       4.26321905      -0.00091146       0.01378747       0.00239417
H       -0.31359755      -2.86186225       8.15970189      -0.00517045       0.00029983       0.01578390
H        0.89965837      -3.19696994       9.39009545      -0.00371618      -0.01268744       0.00660471
H        1.39484299      -2.76272263       7.75636649       0.00692277       0.00378864       0.00972783
H       -2.61176795      -0.28961332       9.71813611      -0.00382403       0.01155774       0.00677535
H       -1.76068228      -1.51016755      10.65586042      -0.02028286      -0.01846948       0.00834611
H       -2.10955376      -1.78776427       8.95128088       0.01595644       0.00465426      -0.00674867
H       -2.03588674       1.91916161       9.67478662      -0.00629633      -0.01786366      -0.00480301
H       -0.67001007       3.00745865       9.86711578       0.01437227      -0.00040340      -0.00602701
H       -1.15981949       1.97218787      11.20089223      -0.00339389      -0.00878540       0.01840041
H        1.48340995       3.18407067       9.66180135      -0.01661295       0.00811317      -0.00251292
H        2.91571802       2.38843641       9.02741041      -0.00687843      -0.00973081      -0.01415526
H        2.48854832       2.21199795      10.72462483       0.00968465      -0.01023795       0.00539253
H        1.70732666      -1.87504571       5.19142289      -0.00926974       0.00334705      -0.00590246
H        3.19047701      -1.15394697       5.79827427       0.00139398       0.02206374      -0.01288012
H        2.77845279      -1.02421739       4.08923903       0.01607763      -0.00566913      -0.01831504
C        3.95390712      -2.42901299       8.45427464      -0.00592069      -0.00141257      -0.00330331
C        3.74945777      -0.89765033      11.04800294      -0.00192416       0.00339786       0.00055355
C        4.89630906       0.42243022       8.59123045      -0.00209100       0.00317494      -0.00557667
C        4.38210368       3.48785708       6.84054541       0.00382005       0.00450496      -0.00137136
C        4.51276118       1.78785845       4.37553262       0.01419115      -0.00007823      -0.00063199
C        5.06915730       0.55846377       7.07043547       0.00041972       0.00052203       0.00455803
H        6.07711084       0.93112703       6.84376604       0.00154413      -0.01049992       0.00709838
H        5.02221947      -0.42134965       6.58489645      -0.00615007       0.00289609       0.01060494
H        5.80642800      -0.01195725       9.02626917      -0.00716838       0.00551324      -0.00085460
H        4.80128587       1.40242120       9.06767760      -0.00483217      -0.00113230      -0.00807624
H        3.93511164       4.27455030       6.23091964       0.00442585      -0.00180224       0.00573822
H        5.46866775       3.59650631       6.77290687      -0.00627882       0.01694400       0.00309156
H        4.10066900       3.66636791       7.87827452       0.00608561      -0.00150772      -0.00725298
H        3.90102605       2.48433868       3.79616365       0.02193562      -0.01161735       0.00478013
H        4.40764912       0.79924830       3.92300445       0.01072130       0.01470476       0.00142583
H        5.55792418       2.09415451       4.28558760       0.00175749      -0.00906511      -0.02780566
H        3.00045985      -1.57917326      11.45929207       0.01312080       0.01101250      -0.00265578
H        3.61860711       0.07072071      11.53748155       0.00093120      -0.01354520      -0.00035498
H        4.73917453      -1.27938445      11.31301668      -0.01805387       0.00952568       0.00200024
H        3.42824353      -3.23028577       8.97530150       0.00124969       0.00498116      -0.00348421
H        5.02669797      -2.59938306       8.58608075      -0.01512813      -0.00086276      -0.00292115
H        3.73446432      -2.52235530       7.39026941      -0.00131637       0.00193173       0.00132409
C       -1.83155886       0.18349378       6.88736973       0.00980220      -0.00858910       0.00635844
H       -2.50386174       0.51677790       7.68311589       0.02156011       0.01270110      -0.00912525
H       -1.93189620      -0.91211183       6.85544416       0.00086783       0.00358138      -0.00638542
H       -2.23587184       0.56133302       5.94898832       0.01873713      -0.00624198       0.01774695
71
Properties=species:S:1:pos:R:3:forces:R:3 charge=0 spin=2 energy=-65496.507436543936 free_energy=-65496.507436543936 pbc="F F F"
C        3.93754640       1.71948242      10.21090864       0.00205743       0.00073047      -0.00405506
C        2.59066374       1.76165153       9.79131123       0.00733346       0.00298534      -0.00835867
C        2.26138413       0.48968665       9.25027195       0.00064230      -0.00377954      -0.00909656
C        1.65859785       2.91248228      10.02944181      -0.00465246       0.00779576      -0.00344872
C        3.40787944      -0.33536777       9.33758253      -0.01449725      -0.01096251       0.01653795
C        4.46437167       0.41715671       9.94199328      -0.00435337      -0.00543443      -0.01383676
Si       6.26842232      -0.02707619      10.19127795      -0.00971545      -0.01851228       0.00286300
C        0.90318247       0.04123614       8.79992363      -0.01236438      -0.00113814       0.00784160
C        3.43438292      -1.77827106       8.91070289       0.00021979       0.00559271       0.00583914
C        3.60689786       3.26665479       6.50508167      -0.00460346      -0.00161732       0.00633107
C        2.42006897       2.50223501       6.40284569      -0.00535334      -0.00892010       0.01328425
C        2.74775155       1.25186802       5.81493088      -0.00896106      -0.00117458      -0.00799239
C        1.02684293       2.99342049       6.65526941      -0.00353286       0.00374048      -0.00489932
C        4.12742820       1.25909772       5.52589381      -0.00175540      -0.01068409       0.01539245
C        4.68721381       2.50537706       5.95001069      -0.01153932       0.01764928      -0.02999976
C        1.78712379       0.17892320       5.39765656      -0.00555015       0.00211840      -0.00882501
C        4.83118849       0.13687762       4.81862998      -0.00002637       0.00442137      -0.00802101
Ti       4.03753103       1.40188113       7.88048013      -0.01160171      -0.00171996      -0.00862827
C        4.63936157       2.86011754      10.89211274      -0.00301841      -0.00723615      -0.00064013
C        3.66581401       4.67737939       7.03125684       0.00624905      -0.00152469      -0.00493392
Si       6.47783485       2.57406246       6.51383355      -0.00124909       0.00097339       0.01110064
H        0.79197977       0.35720540       5.80022132      -0.01861677      -0.02112922      -0.00097422
H        2.11106635      -0.81115618       5.72505266      -0.01410378      -0.00991415      -0.00069307
H        1.69912873       0.14538287       4.30892540      -0.00502468      -0.00122906      -0.01800400
H        2.66228690       5.09286785       7.12547199       0.01480018       0.00033554      -0.00709045
H        4.22463249       5.32231413       6.35246346       0.01465893      -0.00936896       0.00033679
H        4.14225955       4.75217525       8.01084553      -0.01417126      -0.00063969      -0.00526365
H        0.97726906       3.71794767       7.46526439       0.00792293      -0.00425350       0.00159067
H        0.35002554       2.17546081       6.89528425      -0.02439043       0.02462490       0.00744958
H        0.63622814       3.47856554       5.75634024      -0.00403165       0.01141982      -0.00654385
H        2.47511407      -2.06028448       8.47748378       0.02674873      -0.02493114      -0.01863336
H        3.61346616      -2.44007865       9.76046971       0.00649942       0.01466392       0.00327396
H        4.20768833      -1.98926338       8.17038965      -0.00111950       0.00716630       0.01577828
H        0.26270735       0.88495423       8.55235714      -0.01887656      -0.00039818       0.01126724
H        0.40347688      -0.52299798       9.59152852      -0.00372763      -0.00983189       0.01475530
H        0.95341138      -0.60211545       7.92248503      -0.01500957      -0.00012725       0.00573096
H        0.69236333       2.75687650       9.55474257      -0.01043198      -0.01323115      -0.00108350
H        2.06527219       3.85310268       9.65389420      -0.01081734       0.01965558      -0.00337536
H        1.48291945       3.03829207      11.10052331      -0.01211934       0.01115612       0.00478952
H        4.08667319       3.78921605      10.74904408       0.03156343       0.02024540       0.00119813
H        5.65064239       3.01508176      10.51591884       0.00278937      -0.02398640       0.00043802
H        4.71306057       2.68872288      11.96912335      -0.00660374      -0.00143532       0.00823683
H        4.37834572      -0.82855717       5.05416879       0.01462997       0.00622652       0.00264504
H        5.88844836       0.08138549       5.07160516      -0.00946357       0.00258695       0.01380463
H        4.76387315       0.27120209       3.73575471       0.01192389      -0.01013566      -0.01431973
C        6.62533667      -1.79091144       9.66660507       0.01301768      -0.01984362      -0.00848949
C        6.75299649       0.14540405      11.99507108      -0.00681445       0.00183200       0.00986952
C        7.15483180       1.14149777       9.03114902       0.00528214       0.00752182      -0.00821766
C        6.92818138       4.20509972       7.32008608       0.00769335       0.00933420       0.00337999
C        7.70183148       2.32637620       5.10793556       0.00541555       0.00153800      -0.00308994
C        6.25696391       1.26603077       7.79105074       0.00561731      -0.01360671       0.00209660
H        6.18964756       0.29127046       7.26669563       0.00172054      -0.00038957      -0.00645560
H       -1.42400385      -0.75026495       6.25539173      -0.00699606      -0.00079835       0.00305482
H        8.17121633       0.79856789       8.79876153       0.01107914       0.00936620      -0.00505767
H        7.27603394       2.11798623       9.51083751       0.01073837       0.00730176       0.00071023
H        6.85218260       5.04188231       6.62309626      -0.00179398       0.01347192       0.00441037
H        7.96671880       4.14953343       7.65634982       0.01271149       0.00778599      -0.00024951
H        6.31158654       4.42813942       8.19149007       0.00720025      -0.00414344       0.01576184
H        7.53610194       3.06233388       4.31736358       0.00201552       0.01938092       0.00473206
H        7.63460046       1.33605574       4.65728754       0.00569186      -0.00659944      -0.01224607
H        8.72277116       2.45449275       5.47513120       0.01425553      -0.00661815       0.00427847
H        6.10070067      -0.45828588      12.63027268       0.00613720      -0.00197407       0.01671331
H        6.69075861       1.17995745      12.33707357      -0.01244490       0.00226481      -0.00017657
H        7.77950606      -0.19505742      12.15197633      -0.00127130       0.00704860      -0.00699165
H        6.04526323      -2.52508990      10.22789923      -0.00344298       0.00424588      -0.00034314
H        7.68350569      -1.99527149       9.84803609       0.01030914      -0.00619018       0.00498175
H        6.43875751      -1.95150973       8.60374739       0.00880047       0.00114198      -0.00824025
C       -2.51256158      -0.72951874       6.24457035       0.00412404       0.00115133       0.00216860
H       -2.87585746      -0.21325416       7.13113267       0.00850150      -0.00296946      -0.00697509
H       -2.89276252      -1.74914599       6.23789504       0.00653468       0.01182166       0.00152769
H       -2.85743438      -0.20829379       5.35361934       0.00916100      -0.00284691       0.01107887
