71
Properties=species:S:1:pos:R:3:forces:R:3 charge=0 spin=2 energy=-65496.544050960474 pbc="F F F"
C        1.24624725       1.06837284       9.38968937       0.00301459      -0.00068357       0.00021256
C       -0.14210183       0.95332778       9.60433412       0.00154716       0.00407876      -0.00063518
C       -0.50767510      -0.40052399       9.37013007       0.00269635       0.00174626       0.00365130
C       -1.07700839       2.03401280      10.06014633      -0.00343127      -0.00027099      -0.00020876
C        0.64555503      -1.10520298       8.97059717       0.00197016      -0.00040124      -0.00143848
C        1.75846437      -0.20581446       8.97859426       0.00176405       0.00034664       0.00034209
Si       3.53600370      -0.73880293       9.20796054      -0.00029841      -0.00087848      -0.00399705
C       -1.83652282      -1.01332282       9.68358909       0.00084602       0.00250202       0.00125083
C        0.66758148      -2.57338761       8.65578139      -0.00289894      -0.00418727       0.00158636
C        1.10673532       2.41148151       6.04114585       0.00031267      -0.00058785       0.00531939
C        0.01732780       1.90712498       5.29949443      -0.00051242      -0.00226208       0.00503845
C        0.35120580       0.60065819       4.85742338       0.00254094      -0.00093666      -0.00187423
C       -1.23220456       2.68084186       5.00543742      -0.00017700      -0.00323302      -0.00136465
C        1.64585690       0.29991189       5.32584271       0.00309063      -0.00067980      -0.00087215
C        2.14833667       1.42642152       6.05500113      -0.00060709      -0.00104077       0.00217381
C       -0.45794445      -0.30702602       3.98226414      -0.00081017       0.00075703      -0.00144392
C        2.37902703      -0.96595590       4.98522138       0.00138946      -0.00004291      -0.00109147
Ti       0.29446127       0.53179327       7.26694140      -0.00531237      -0.00287200      -0.00605540
C        2.06388712       2.29013626       9.68456207      -0.00177643      -0.00256274      -0.00277078
C        1.14002007       3.80812597       6.59372144       0.00027465       0.00166408       0.00139338
Si       3.99070561       1.76949181       6.15603988      -0.00482893       0.00600811      -0.00517749
H       -1.44632098       0.09985749       3.77940529      -0.00278350       0.00113299      -0.00313227
H       -0.59855557      -1.29005705       4.43573943      -0.00092331      -0.00005969       0.00059697
H        0.04449900      -0.45677223       3.02315849       0.00169544       0.00118131      -0.00132925
H        0.15109502       4.11122358       6.94230152      -0.00138472      -0.00247918       0.00277889
H        1.44148364       4.52595125       5.82467805       0.00203225       0.00092984      -0.00052190
H        1.83190959       3.90727938       7.42558321       0.00115617      -0.00054894       0.00143418
H       -1.75097116       2.98221009       5.91756440       0.00030811      -0.00277573      -0.00050356
H       -1.93399838       2.09990128       4.41039351      -0.00230387      -0.00253897      -0.00261831
H       -0.99454920       3.58832042       4.44500620      -0.00195824      -0.00188274      -0.00281040
H       -0.31831311      -2.91884327       8.34408219      -0.00762933       0.00409179      -0.00243282
H        0.95635977      -3.16376638       9.53056829       0.00150716      -0.00455282       0.00391349
H        1.36860153      -2.80767448       7.85636620      -0.00140079      -0.00076421      -0.00093756
H       -2.63065466      -0.26919897       9.70806385      -0.00122486       0.00282483       0.00299570
H       -1.79775491      -1.48518740      10.66916708      -0.00246115       0.00176661       0.00241281
H       -2.12394065      -1.77720573       8.96304183      -0.00297526      -0.00022481       0.00165433
H       -2.05764547       1.93064433       9.59383413      -0.00507409      -0.00125219      -0.00106014
H       -0.69947148       3.02564143       9.81105805       0.00117876      -0.00203878       0.00103945
H       -1.22425681       2.00040324      11.14297391       0.00018691       0.00235472       0.00101865
H        1.44054168       3.18007639       9.76800798       0.00231470      -0.00203049      -0.00411246
H        2.80511034       2.47426203       8.91067548       0.00181078       0.00128087       0.00456896
H        2.59872960       2.17689400      10.63253032      -0.00040922       0.00315297      -0.00601116
H        1.76215746      -1.85031735       5.16226930       0.00159764      -0.00040968      -0.00002611
H        3.28823869      -1.07447999       5.57319282       0.00090143      -0.00142692      -0.00097982
H        2.66237930      -0.98164257       3.92867056       0.00275003       0.00171022      -0.00087902
C        3.94269787      -2.38271336       8.39447562      -0.00159564      -0.00068898      -0.00287352
C        3.73419592      -0.95151371      11.06349057       0.00020081       0.00042745      -0.00549580
C        4.85783690       0.46833022       8.63862932       0.00151950       0.00387046       0.00355733
C        4.40561787       3.49512223       6.77381160      -0.00234260       0.00075546       0.00158496
C        4.58179849       1.69963110       4.37428786      -0.00068886      -0.00038772       0.00023593
C        5.06774288       0.56874559       7.11949073      -0.00310912       0.00170986      -0.00613840
H        6.08310576       0.92854682       6.90702936       0.00249991      -0.00022942       0.00550674
H        5.02563765      -0.42269076       6.65792835       0.00000368      -0.00650411       0.00164904
H        5.77013443       0.08060564       9.11006100       0.00531253      -0.00337339       0.00043753
H        4.70968929       1.45504292       9.08490885       0.00002630       0.00697165       0.00630861
H        3.92662871       4.26415253       6.16646359       0.00040856       0.00090809      -0.00041913
H        5.48720070       3.62305497       6.67255858      -0.00191992      -0.00245644      -0.00044210
H        4.15362973       3.68560587       7.81721607       0.00066591      -0.00007370       0.00335217
H        4.00961811       2.39312001       3.75351449      -0.00088389       0.00163493       0.00341411
H        4.46016052       0.70085851       3.95077826       0.00237180      -0.00107317      -0.00135548
H        5.63801385       1.96975841       4.29777645      -0.00030615       0.00143413       0.00566123
H        2.99807427      -1.66187270      11.44743455       0.00037945       0.00183754      -0.00104103
H        3.57835929      -0.00426498      11.58550192       0.00086422      -0.00041958      -0.00146147
H        4.72926549      -1.32030514      11.32419766       0.00059067       0.00118242      -0.00292535
H        3.46592645      -3.21817372       8.90799967      -0.00287727       0.00136112       0.00110402
H        5.02426225      -2.53502335       8.45099928      -0.00087201      -0.00021066      -0.00188476
H        3.65690857      -2.42845005       7.34267994       0.00054193      -0.00373471      -0.00392125
C       -1.78691382       0.07478540       6.85303265       0.00670150       0.00245919       0.00126551
H       -2.46295696       0.46638976       7.61899216       0.00176790      -0.00045390      -0.00233671
H       -1.90057174      -1.01811217       6.88352232       0.00460927       0.00260466       0.00364035
H       -2.17209603       0.40388770       5.88966784       0.00042679      -0.00145570       0.00347997
71
Properties=species:S:1:pos:R:3:forces:R:3 charge=0 spin=2 energy=-65496.56069276147 pbc="F F F"
C        3.89509053       1.69199812      10.17626161      -0.00049973       0.00378130      -0.00109095
C        2.54609056       1.72706107       9.76021528      -0.00144603       0.00055971       0.00116284
C        2.22455771       0.45473625       9.21557402       0.00032108       0.00241003      -0.00384358
C        1.59935320       2.86266436      10.01446136      -0.00111342      -0.00052347       0.00076478
C        3.37877021      -0.36038852       9.29012993       0.00176065       0.00281648      -0.00609299
C        4.43023174       0.39441211       9.89922598      -0.00036817       0.00140487       0.00090459
Si       6.23702252      -0.03623458      10.16402026       0.00319380      -0.00569478       0.00010531
C        0.86557402      -0.01082137       8.78759606       0.00070093       0.00053845       0.00141395
C        3.42834411      -1.79430077       8.84181816       0.00102613      -0.00156267       0.00304411
C        3.56591119       3.25947745       6.46037709      -0.00229155      -0.00063887       0.00276825
C        2.38259117       2.48968985       6.36898817      -0.00145066      -0.00049259      -0.00488760
C        2.70973151       1.24058222       5.77957334       0.00043087      -0.00143353       0.00028585
C        1.00191053       3.01023343       6.63035385       0.00026191      -0.00182152       0.00339042
C        4.09230215       1.24955401       5.49408661       0.00007307      -0.00142162       0.00136609
C        4.64922917       2.50237168       5.91178873      -0.00043009      -0.00002255      -0.00239782
C        1.74252572       0.17236986       5.36256040       0.00144617       0.00239694       0.00089882
C        4.80997700       0.12711535       4.79997169      -0.00315753       0.00014125       0.00025526
Ti       3.99875487       1.38998326       7.84418238      -0.00019198      -0.00149729      -0.00268790
C        4.59161990       2.83378831      10.86019299      -0.00118899       0.00515081       0.00187503
C        3.58997371       4.68827669       6.92966150      -0.00262469       0.00458368       0.00200397
Si       6.43837101       2.56734692       6.49624636       0.00362500      -0.00674337       0.00187118
H        0.76452853       0.31664498       5.81889048       0.00233797       0.00056405      -0.00047778
H        2.09231996      -0.82696668       5.63051819      -0.00074608       0.00351021      -0.00167383
H        1.60358402       0.18435996       4.27783417       0.00164331      -0.00131017       0.00277546
H        2.93183096       5.29927205       6.30608502      -0.00171424      -0.00225125      -0.00115764
H        4.58730532       5.11208870       6.86409286      -0.00040021      -0.00517353      -0.00177987
H        3.24617404       4.80024807       7.96109719       0.00030392       0.00166607      -0.00126331
H        0.99951842       3.77783331       7.40266700      -0.00166661       0.00218594       0.00022169
H        0.31083454       2.22412338       6.93198712       0.00049634      -0.00247715       0.00112491
H        0.59621570       3.46288533       5.72025699       0.00474801      -0.00216294       0.00278326
H        2.60763419      -2.01765914       8.15951583       0.00460833      -0.00013992       0.00475072
H        3.34030349      -2.47787234       9.69061163       0.00176764      -0.00011519       0.00223184
H        4.35868493      -2.03284014       8.32904820      -0.00188722      -0.00540132       0.00381041
H        0.20615093       0.82142756       8.54849319       0.00387016       0.00055883      -0.00026200
H        0.38922811      -0.58052171       9.59059299      -0.00306639       0.00078374      -0.00152403
H        0.90893805      -0.65797971       7.91276335      -0.00440423       0.00085079       0.00227184
H        0.65379213       2.72606823       9.49368729      -0.00044066      -0.00091411      -0.00020521
H        2.01421629       3.82299972       9.70344926      -0.00140582      -0.00100105       0.00042077
H        1.37829767       2.93970669      11.08234345       0.00232748      -0.00485617       0.00130470
H        4.22062820       3.79587632      10.50182910      -0.00041493       0.00148230       0.00040503
H        5.66790049       2.81556848      10.69689865      -0.00478768      -0.00239727      -0.00287135
H        4.42285487       2.80354828      11.94077811      -0.00155270      -0.00163316      -0.00158503
H        4.38176664      -0.84330552       5.05940389      -0.00066697       0.00030898      -0.00089663
H        5.86951466       0.09848369       5.04850920      -0.00521920       0.00207581       0.00057938
H        4.73415209       0.23662967       3.71454013       0.00171996      -0.00100124       0.00105189
C        6.63722031      -1.80454560       9.67923339       0.00054549      -0.00162276      -0.00209810
C        6.69329417       0.16987402      11.97347877      -0.00039985      -0.00001271      -0.00018407
C        7.11810826       1.12463031       8.98980321       0.00070059       0.00277027      -0.00138753
C        6.89102944       4.15690447       7.38755426       0.00183649      -0.00176714       0.00066048
C        7.67610400       2.38458101       5.09238756      -0.00067608       0.00053514      -0.00105579
C        6.22220534       1.22945897       7.74375840      -0.00087951      -0.00151289       0.00093286
H        6.17684823       0.25594420       7.21906777       0.00080696       0.00054566       0.00008975
H       -1.25843527      -1.32780214       6.67871275      -0.00259093      -0.00021527      -0.00295093
H        8.13741187       0.78636792       8.76200427       0.00247628       0.00235632       0.00139201
H        7.23346908       2.10851532       9.45573539       0.00137450       0.00424611      -0.00026330
H        6.86077199       5.03331171       6.73710135      -0.00090672      -0.00160366      -0.00064348
H        7.91758384       4.05751272       7.75139320       0.00166649       0.00065032       0.00223028
H        6.25223754       4.34346367       8.25357356       0.00203308       0.00101836      -0.00000385
H        7.63224325       3.25598902       4.43370882       0.00147404       0.00004775       0.00260612
H        7.49763524       1.49947716       4.48075006       0.00733026       0.00170762       0.00079726
H        8.69197844       2.31751255       5.49021085      -0.00572398      -0.00156995       0.00152233
H        6.13196966      -0.52972446      12.59771255       0.00154509      -0.00183424      -0.00347589
H        6.48662179       1.17771719      12.33699844       0.00010541      -0.00027035      -0.00265953
H        7.75716826      -0.02826230      12.12637481      -0.00206872      -0.00013040      -0.00542638
H        5.99304670      -2.53647877      10.16911810       0.00123977       0.00295691      -0.00076801
H        7.66727036      -2.01491646       9.97953503      -0.00222001       0.00306498       0.00020857
H        6.57504370      -1.96043440       8.60057630      -0.00102767       0.00090104       0.00022388
C       -2.04819784      -0.58644912       6.57373388       0.00008775       0.00153070      -0.00192519
H       -2.12071715      -0.00218929       7.48900233      -0.00054970      -0.00204797       0.00002740
H       -2.99483998      -1.08974844       6.38918933      -0.00032573       0.00287431       0.00063830
H       -1.82068179       0.07195896       5.73740492       0.00061987       0.00229837       0.00036792
